# vtk DataFile Version 5.1
vtk output
ASCII
DATASET POLYDATA
POINTS 2756 float
1.71987 3.18671 -0.271148 1.66987 3.18671 -0.321148 1.61987 3.13671 -0.321148 
1.56987 3.13671 -0.321148 1.51987 3.13671 -0.321148 1.46987 3.13671 -0.321148 
1.41987 3.13671 -0.321148 1.36987 3.13671 -0.321148 1.31987 3.13671 -0.321148 
1.26987 3.13671 -0.321148 1.21987 3.08671 -0.271148 1.16987 3.08671 -0.271148 
1.11987 3.08671 -0.221148 1.06987 3.03671 -0.221148 1.01987 2.98671 -0.171148 
0.96987 2.98671 -0.171148 0.91987 2.98671 -0.121148 0.86987 2.98671 -0.121148 
0.81987 2.98671 -0.121148 0.76987 2.98671 -0.121148 0.71987 3.03671 -0.071148 
0.66987 3.03671 -0.071148 1.76987 3.13671 -0.271148 1.76987 3.08671 -0.271148 
1.81987 3.03671 -0.271148 1.81987 2.98671 -0.271148 1.86987 2.93671 -0.271148 
1.86987 2.88671 -0.271148 1.86987 2.83671 -0.321148 1.86987 2.78671 -0.321148 
1.91987 2.73671 -0.321148 1.91987 2.68671 -0.321148 1.91987 2.63671 -0.321148 
1.96987 2.58671 -0.321148 1.96987 2.53671 -0.321148 1.96987 2.48671 -0.321148 
1.96987 2.43671 -0.271148 2.01987 2.38671 -0.271148 2.01987 2.33671 -0.221148 
2.06987 2.28671 -0.221148 2.06987 2.23671 -0.221148 2.11987 2.18671 -0.171148 
2.16987 2.13671 -0.121148 2.16987 2.08671 -0.071148 2.21987 2.03671 -0.071148 
2.26987 1.98671 -0.021148 2.26987 1.98671 0.028852 2.31987 1.93671 0.078852 
1.76987 3.23671 -0.271148 1.76987 3.28671 -0.221148 1.81987 3.33671 -0.221148 
1.81987 3.38671 -0.171148 1.81987 3.43671 -0.171148 1.81987 3.48671 -0.221148 
1.81987 3.53671 -0.221148 1.86987 3.58671 -0.171148 0.31987 3.98671 -0.271148 
0.31987 3.98671 -0.321148 0.31987 3.98671 -0.371148 0.26987 3.93671 -0.421148 
0.21987 3.88671 -0.471148 0.16987 3.88671 -0.521148 0.11987 3.83671 -0.521148 
0.0698701 3.83671 -0.521148 0.0198701 3.78671 -0.521148 -0.0301299 3.73671 -0.521148 
-0.0801299 3.73671 -0.521148 -0.13013 3.68671 -0.471148 -0.18013 3.63671 -0.421148 
-0.23013 3.58671 -0.371148 -0.23013 3.53671 -0.321148 -0.23013 3.53671 -0.271148 
-0.28013 3.48671 -0.221148 -0.28013 3.48671 -0.171148 -0.33013 3.48671 -0.121148 
-0.38013 3.43671 -0.071148 0.31987 3.93671 -0.221148 0.31987 3.88671 -0.171148 
0.36987 3.83671 -0.121148 0.36987 3.78671 -0.121148 0.41987 3.73671 -0.171148 
0.41987 3.68671 -0.171148 0.41987 3.63671 -0.171148 0.46987 3.58671 -0.171148 
0.51987 3.53671 -0.171148 0.56987 3.48671 -0.171148 0.96987 4.58671 -0.271148 
0.96987 4.53671 -0.321148 0.96987 4.48671 -0.321148 0.96987 4.43671 -0.321148 
0.96987 4.38671 -0.321148 0.96987 4.33671 -0.321148 0.96987 4.28671 -0.321148 
0.96987 4.23671 -0.371148 0.96987 4.18671 -0.371148 0.91987 4.13671 -0.371148 
0.91987 4.08671 -0.371148 0.91987 4.03671 -0.321148 0.86987 3.98671 -0.321148 
0.86987 3.93671 -0.271148 0.86987 3.88671 -0.271148 0.86987 3.83671 -0.221148 
0.81987 3.78671 -0.221148 0.76987 3.73671 -0.221148 0.76987 3.68671 -0.221148 
0.71987 3.63671 -0.171148 0.66987 3.58671 -0.171148 0.61987 3.53671 -0.171148 
1.01987 4.63671 -0.321148 1.01987 4.68671 -0.321148 1.06987 4.73671 -0.271148 
0.91987 4.53671 -0.221148 0.86987 4.53671 -0.221148 0.81987 4.58671 -0.171148 
0.76987 4.58671 -0.121148 0.71987 4.58671 -0.071148 0.66987 4.63671 -0.021148 
0.61987 4.63671 0.028852 0.56987 4.68671 0.078852 0.51987 4.73671 0.128852 
0.46987 4.73671 0.078852 1.26987 4.93671 0.278852 1.26987 4.93671 0.228852 
1.26987 4.88671 0.178852 1.21987 4.83671 0.128852 1.21987 4.83671 0.078852 
1.16987 4.83671 0.028852 1.16987 4.78671 -0.021148 1.11987 4.78671 -0.071148 
1.11987 4.78671 -0.121148 1.11987 4.73671 -0.171148 1.06987 4.73671 -0.221148 
1.96987 4.93671 -0.221148 1.96987 4.88671 -0.221148 1.96987 4.83671 -0.271148 
1.96987 4.78671 -0.271148 1.96987 4.73671 -0.271148 1.96987 4.68671 -0.321148 
1.96987 4.63671 -0.321148 1.96987 4.58671 -0.321148 1.96987 4.53671 -0.321148 
1.96987 4.48671 -0.371148 1.96987 4.43671 -0.371148 1.91987 4.38671 -0.371148 
1.91987 4.33671 -0.371148 1.91987 4.28671 -0.371148 1.91987 4.23671 -0.371148 
1.91987 4.18671 -0.371148 1.91987 4.13671 -0.371148 1.91987 4.08671 -0.371148 
1.91987 4.03671 -0.371148 1.91987 3.98671 -0.371148 1.91987 3.93671 -0.371148 
1.91987 3.88671 -0.371148 1.91987 3.83671 -0.321148 1.86987 3.78671 -0.321148 
1.86987 3.73671 -0.321148 1.86987 3.68671 -0.321148 1.86987 3.63671 -0.271148 
1.86987 3.63671 -0.221148 0.56987 3.43671 -0.171148 0.61987 3.38671 -0.121148 
0.61987 3.33671 -0.121148 0.66987 3.28671 -0.121148 0.66987 3.23671 -0.071148 
1.86987 3.58671 -0.121148 1.86987 3.63671 -0.071148 1.91987 3.68671 -0.021148 
1.91987 3.73671 0.028852 -2.33013 5.78671 -0.171148 -2.33013 5.73671 -0.171148 
-2.33013 5.68671 -0.171148 -2.28013 5.63671 -0.221148 -2.28013 5.58671 -0.221148 
-2.33013 5.53671 -0.221148 -2.33013 5.48671 -0.221148 -2.33013 5.43671 -0.221148 
-2.33013 5.38671 -0.221148 -2.33013 5.33671 -0.171148 -2.33013 5.28671 -0.171148 
-2.28013 5.23671 -0.171148 -2.23013 5.18671 -0.171148 -2.18013 5.13671 -0.121148 
-2.13013 5.08671 -0.121148 -0.53013 3.03671 -0.121148 -0.58013 3.03671 -0.171148 
-0.63013 3.08671 -0.221148 -0.68013 3.13671 -0.271148 -0.73013 3.18671 -0.321148 
-0.78013 3.18671 -0.371148 -0.83013 3.23671 -0.371148 -0.88013 3.23671 -0.321148 
-0.93013 3.28671 -0.371148 -0.98013 3.33671 -0.371148 -1.03013 3.33671 -0.321148 
-1.08013 3.38671 -0.321148 -1.13013 3.43671 -0.271148 -1.18013 3.48671 -0.271148 
-1.23013 3.53671 -0.271148 -1.23013 3.58671 -0.221148 -1.28013 3.63671 -0.221148 
-1.33013 3.63671 -0.171148 -1.38013 3.58671 -0.121148 -1.43013 3.58671 -0.071148 
-1.48013 3.53671 -0.021148 -1.53013 3.48671 0.028852 -1.58013 3.43671 0.028852 
-1.63013 3.43671 0.028852 -1.68013 3.38671 0.078852 -0.48013 2.98671 -0.071148 
-0.48013 2.93671 -0.071148 -0.53013 2.88671 -0.071148 -0.53013 2.83671 -0.071148 
-0.53013 2.78671 -0.021148 -0.48013 2.73671 0.028852 -0.53013 2.68671 0.078852 
-0.48013 3.08671 -0.071148 -0.48013 3.13671 -0.071148 -0.48013 3.18671 -0.021148 
-0.43013 3.23671 -0.071148 -0.43013 3.28671 -0.071148 -0.43013 3.33671 -0.071148 
-0.38013 3.38671 -0.071148 -1.73013 5.58671 0.078852 -1.78013 5.53671 0.078852 
-1.78013 5.48671 0.028852 -1.83013 5.43671 -0.021148 -1.88013 5.38671 -0.021148 
-1.88013 5.33671 -0.071148 -1.93013 5.28671 -0.121148 -1.93013 5.23671 -0.121148 
-1.98013 5.18671 -0.171148 -2.03013 5.13671 -0.171148 -2.08013 5.13671 -0.171148 
-2.13013 5.03671 -0.121148 -2.13013 4.98671 -0.071148 -2.13013 4.93671 -0.071148 
-2.13013 4.88671 -0.021148 2.91987 1.28671 -0.071148 2.86987 1.23671 -0.071148 
2.81987 1.18671 -0.021148 2.76987 1.18671 0.028852 2.71987 1.13671 0.028852 
2.71987 1.08671 0.078852 2.66987 1.08671 0.128852 2.61987 1.03671 0.178852 
2.56987 1.08671 0.228852 2.51987 1.08671 0.278852 2.51987 1.08671 0.328852 
2.46987 1.08671 0.378852 0.61987 2.98671 -0.071148 0.61987 2.93671 -0.071148 
0.56987 2.88671 -0.021148 0.56987 2.83671 -0.071148 0.51987 2.78671 -0.021148 
0.51987 2.73671 -0.021148 0.51987 2.68671 -0.021148 0.46987 2.63671 0.028852 
0.46987 2.58671 0.028852 0.46987 2.53671 0.028852 0.41987 2.48671 0.028852 
0.41987 2.43671 0.028852 0.41987 2.38671 0.028852 0.41987 2.33671 0.028852 
0.46987 2.28671 0.028852 0.66987 3.08671 -0.071148 0.66987 3.13671 -0.071148 
0.61987 3.18671 -0.121148 0.51987 3.33671 0.778852 0.51987 3.28671 0.728852 
0.51987 3.28671 0.678852 0.51987 3.28671 0.628852 0.51987 3.23671 0.578852 
0.51987 3.18671 0.528852 0.51987 3.18671 0.478852 0.51987 3.13671 0.428852 
0.56987 3.13671 0.378852 0.56987 3.13671 0.328852 0.61987 3.18671 0.278852 
0.61987 3.13671 0.228852 0.61987 3.13671 0.178852 0.61987 3.13671 0.128852 
0.66987 3.13671 0.078852 0.66987 3.13671 0.028852 0.66987 3.13671 -0.021148 
0.91987 3.68671 0.628852 0.91987 3.63671 0.578852 0.91987 3.63671 0.528852 
0.91987 3.58671 0.478852 0.86987 3.58671 0.428852 0.86987 3.53671 0.378852 
0.81987 3.53671 0.328852 0.81987 3.48671 0.278852 0.76987 3.43671 0.228852 
0.76987 3.38671 0.178852 0.76987 3.33671 0.128852 0.76987 3.33671 0.078852 
0.71987 3.28671 0.028852 0.71987 3.28671 -0.021148 -0.38013 3.48671 -0.021148 
-0.38013 3.53671 0.028852 -0.38013 3.58671 0.078852 -0.38013 3.63671 0.078852 
-0.33013 3.68671 0.128852 -0.33013 3.73671 0.178852 -2.83013 5.33671 0.278852 
-2.78013 5.28671 0.228852 -2.83013 5.28671 0.178852 -2.78013 5.23671 0.128852 
-2.78013 5.18671 0.128852 -2.73013 5.13671 0.128852 -2.73013 5.08671 0.078852 
-2.68013 5.03671 0.028852 -2.68013 4.98671 0.028852 -2.63013 4.93671 0.028852 
-2.58013 4.93671 -0.021148 -2.53013 4.88671 -0.021148 -2.48013 4.88671 -0.021148 
-2.43013 4.83671 -0.071148 -2.38013 4.83671 -0.071148 -2.33013 4.83671 -0.071148 
-2.28013 4.83671 -0.071148 -2.23013 4.83671 -0.071148 -2.18013 4.83671 -0.121148 
-2.13013 4.83671 -0.071148 -2.13013 4.83671 -0.021148 -2.13013 4.78671 -0.021148 
-2.13013 4.73671 -0.021148 -2.13013 4.68671 -0.071148 -2.13013 4.63671 -0.071148 
-2.13013 4.58671 -0.121148 -2.13013 4.53671 -0.121148 -2.08013 4.48671 -0.171148 
-2.08013 4.43671 -0.171148 -2.08013 4.38671 -0.121148 -2.03013 4.33671 -0.121148 
-2.03013 4.28671 -0.121148 -2.03013 4.23671 -0.121148 -2.03013 4.18671 -0.121148 
-2.03013 4.13671 -0.121148 -1.98013 4.08671 -0.121148 -1.98013 4.03671 -0.121148 
-1.98013 3.98671 -0.121148 -1.98013 3.93671 -0.121148 -1.98013 3.88671 -0.121148 
-1.98013 3.83671 -0.071148 -1.93013 3.78671 -0.071148 -1.93013 3.73671 -0.071148 
-1.93013 3.68671 -0.021148 -1.88013 3.63671 -0.021148 -1.88013 3.58671 0.028852 
-1.83013 3.53671 0.028852 -1.78013 3.48671 0.078852 -1.73013 3.43671 0.128852 
-1.98013 4.88671 0.528852 -2.03013 4.88671 0.478852 -2.03013 4.88671 0.428852 
-2.03013 4.83671 0.378852 -2.08013 4.83671 0.328852 -2.08013 4.83671 0.278852 
-2.08013 4.83671 0.228852 -2.08013 4.83671 0.178852 -2.08013 4.83671 0.128852 
-2.13013 4.83671 0.078852 -2.13013 4.83671 0.028852 -2.13013 5.23671 0.328852 
-2.13013 5.18671 0.278852 -2.13013 5.13671 0.228852 -2.13013 5.08671 0.178852 
-2.13013 5.08671 0.128852 -2.13013 5.03671 0.078852 -2.13013 4.98671 0.078852 
[...]
POINT_DATA 2756
SCALARS scalars double
LOOKUP_TABLE default
0.48824092798 0.4421288694 0.38630489254 0.38141529775 0.38861678533 0.40321583463 0.41582872988 0.43117962238 0.45854093089 
0.44787784766 0.47755915688 0.43894892018 0.47733165107 0.41420533476 0.42939542244 0.39376674271 0.45517034417 0.44002164749 
0.43284926727 0.43097353561 0.56630914141 0.57447202961 0.53827290583 0.51165509927 0.50304355232 0.51600853523 0.43823217867 
0.45789751692 0.47945172381 0.48531973534 0.45191028261 0.47036646441 0.48703764559 0.40957496137 0.41890595039 0.42355813286 
0.40315357308 0.39737257748 0.41062452837 0.39022692167 0.36780400948 0.39923994533 0.44263853425 0.48447623818 0.4491484695 
0.51152751586 0.55893373261 0.60748509773 0.51885449001 0.45346256886 0.45875090285 0.45588699877 0.44130050008 0.43984583529 
0.40917561379 0.38804068362 0.3001120189 0.28223859306 0.26060736995 0.33111165188 0.37630521449 0.40403870722 0.39110516702 
0.36201567861 0.36812060407 0.39477617552 0.35010923218 0.32244191602 0.3089054899 0.28613964384 0.32581006811 0.30336846982 
0.3418954615 0.32697143591 0.41079321627 0.44752207334 0.31140838745 0.3294715996 0.42171543335 0.41407162567 0.39921062956 
0.45880162008 0.51598783986 0.54241968936 0.55237122372 0.52833858813 0.40261359776 0.41945053251 0.44044886776 0.44696895214 
0.44577704702 0.44467726482 0.43940490802 0.44772749419 0.43260716575 0.4126222043 0.44541549448 0.44801737142 0.41114604835 
0.39616495424 0.42924337208 0.35331023389 0.42074306995 0.45005656401 0.41739478876 0.45536022976 0.49983100282 0.51274635026 
0.42301651056 0.42252463176 0.34384158951 0.29609549854 0.29440984893 0.23029617327 0.22538612826 0.24580269028 0.26315191642 
0.34896020213 0.42133327706 0.49116273435 0.46798648418 0.11707259825 0.1715737378 0.15451683765 0.17400926246 0.17365543333 
0.18528077363 0.22168208334 0.20060511116 0.26173343166 0.28106800502 0.35280200558 0.29226469225 0.31624343887 0.29792511582 
0.30802843461 0.30265161294 0.30318064411 0.30937694186 0.31533058777 0.32158681901 0.34076247867 0.33168066111 0.29570862371 
0.30989205743 0.31840893426 0.32457456221 0.32870588202 0.32927796634 0.32336683032 0.32015074428 0.32223621854 0.33304119525 
0.35242009711 0.37495153604 0.31701477938 0.35521398051 0.39633035458 0.37562575195 0.38258045947 0.52360147178 0.59951262921 
0.6163399919 0.58893104103 0.64353140791 0.40818392937 0.43825440872 0.37422490693 0.40338799203 0.340662082 0.32402238011 
0.31318907344 0.35554662593 0.35371737872 0.34494062688 0.35408815108 0.36328766192 0.36760613456 0.31917594561 0.32025643093 
0.40735612007 0.3767028071 0.45176338523 0.45088815219 0.44673478521 0.40086956543 0.36240628837 0.34151057886 0.31312883424 
0.27356996438 0.29804617918 0.21783671016 0.26373974181 0.2551039017 0.23682236662 0.24589212404 0.21296397299 0.26312409069 
0.26910356485 0.2851677581 0.38218137192 0.37100815911 0.44172249349 0.43155777226 0.46234617823 0.47154632954 0.55918921507 
0.52013388332 0.56725248731 0.44260979126 0.43102738485 0.46413347445 0.49180642246 0.50893747878 0.39349019475 0.47042299971 
0.4716556858 0.48323140642 0.44269618325 0.43704581529 0.46429510733 0.46321459132 0.42930680594 0.2230673328 0.20174926936 
0.25276092438 0.25148272094 0.24161816368 0.31785893726 0.3370081405 0.38171113061 0.35978778339 0.35223525878 0.35059355369 
0.46240365799 0.53810378542 0.52514411299 0.49012196691 0.32229264151 0.29330151558 0.3426576066 0.32174245342 0.3189231023 
0.31424385169 0.35345179535 0.40500522271 0.44291369808 0.46768779149 0.49202992817 0.57253549251 0.54236882187 0.50106134121 
0.57125474851 0.44825448908 0.53569923063 0.52618483394 0.52449557745 0.57869754184 0.57139915669 0.57121603546 0.57722782811 
0.58540405829 0.60213623755 0.61029907572 0.56288050501 0.62077417807 0.66760872643 0.62413837528 0.1395347353 0.22207109306 
0.2107505276 0.19340304673 0.24708939238 0.24842512236 0.2562102473 0.24146230374 0.29245295108 0.31331771064 0.32695219625 
0.4105784203 0.42953885165 0.45988915311 0.57325820391 0.62870695412 0.67723957886 0.27072274478 0.2531693086 0.28699470204 
0.28283804774 0.29029506394 0.31815063492 0.31558870838 0.36363402873 0.32837016314 0.40020470212 0.45028627302 0.43423678982 
0.53969388788 0.52569076533 0.46125828422 0.48218906884 0.5006990495 0.46968974213 0.43085465849 0.43127903938 0.22195191744 
0.28395997302 0.27437575513 0.31698852592 0.33421922941 0.29849096064 0.36438172717 0.31300747837 0.35106676373 0.35317331221 
0.31546918956 0.3665422508 0.33578592343 0.4140411223 0.43382705512 0.44663543236 0.47371352093 0.51409740452 0.48993978121 
0.51373058121 0.48811971917 0.48964627317 0.49669534673 0.54251509308 0.55822164721 0.51459052256 0.52318328881 0.51337246778 
0.5373636078 0.55444308614 0.50270115858 0.49095134184 0.48290429947 0.48151784556 0.47962753764 0.40081812969 0.4192158721 
0.44121223958 0.46513682941 0.47078907891 0.41604075209 0.4614219547 0.42237017898 0.40577853403 0.41840863595 0.45287012042 
0.4496730883 0.5365086265 0.54918002478 0.26986342096 0.28589322002 0.30388275591 0.2890076131 0.31576739454 0.34658254721 
0.36018863636 0.35854092191 0.35761806161 0.42609848309 0.47180464981 0.26845763702 0.31893374868 0.34789210452 0.36668199047 
0.40680613394 0.44246081558 0.43365974822 0.47948919261 0.35153521187 0.36561189821 0.36524261921 0.36437640799 0.34476071584 
0.30518193979 0.31039235533 0.31170829865 0.39182425773 0.39557951987 0.35468780335 0.37468242912 0.38468466002 0.39442370137 
0.42985586622 0.39395748505 0.48766237047 0.58823096465 0.69165361814 0.77704641195 0.35767128992 0.35914433273 0.37471763731 
0.39839262522 0.38578610366 0.488592498 0.55433751522 0.30404352955 0.27495592468 0.26527489489 0.24072759334 0.24970731392 
0.26624920535 0.28677565704 0.24552790146 0.29042256036 0.22899463545 0.26745184214 0.29179483339 0.29180383869 0.38285317871 
0.42000874193 0.49708238452 0.58023212231 0.47272953318 0.49048614876 0.42591525905 0.33878294119 0.3374852855 0.3215793417 
0.41407451462 0.41386917079 0.36749203184 0.33736452623 0.38015698197 0.41235151075 0.41678020486 0.40724824237 0.40575500907 
0.39870661067 0.37239416702 0.3343632377 0.4038820779 0.39213971086 0.41598237442 0.43577021363 0.27944173367 0.22416104922 
0.2621577315 0.29131206073 0.30430263481 0.29876065046 0.29919570001 0.39562672584 0.50013850228 0.51461483279 0.57128544874 
0.5495701399 0.55857214038 0.64741632227 0.65775282592 0.61878281606 0.62158253772 0.61238701052 0.6002206302 0.59585749271 
0.59773754207 0.68248169384 0.65718030217 0.69533883377 0.66140742412 0.39815004696 0.30793377641 0.3172675241 0.26911965865 
0.19920740556 0.1832827525 0.224009011 0.22797392659 0.21210689942 0.19449501634 0.236261967 0.23120162181 0.29645966184 
0.38925748442 0.44709568947 0.50301297762 0.42637426765 0.45143114133 0.43596295071 0.42163700101 0.41105675307 0.41156149358 
0.34185853743 0.57570859264 0.5440294074 0.51421320238 0.48886470217 0.46874884886 0.43261220581 0.41036737025 0.38664765194 
0.37675279242 0.25355865472 0.26832394268 0.28933321108 0.31865063735 0.34438669073 0.39472042838 0.45411987971 0.49811249685 
0.48862310196 0.56874699587 0.57591425306 0.57930108629 0.49327002945 0.42138830299 0.42191177796 0.27820049324 0.24803844908 
0.3501519022 0.36295236396 0.37741228064 0.42359641087 0.38374604956 0.39169823684 0.4427622879 0.31305835808 0.38168666008 
0.39972707053 0.3218489544 0.34486363636 0.36981286414 0.32544706502 0.34434313153 0.37327553726 0.37429846992 0.37796626946 
0.3682584901 0.43554997844 0.3428991986 0.39387128203 0.41590485978 0.49964265143 0.68363467514 0.68551370643 0.65640852631 
0.67570778493 0.7048569609 0.72883974675 0.65145093416 0.66576268695 0.41621665633 0.4413077165 0.43770202828 0.42367808752 
0.41205175213 0.47428883628 0.49727504684 0.4194984595 0.24043659533 0.25719565679 0.28507637832 0.21121490278 0.18506549344 
0.21897983491 0.2234188455 0.12326224523 0.13241116555 0.19029894451 0.23291073575 0.2823530224 0.18642961094 0.20235113645 
0.17276736828 0.18902843646 0.22803708243 0.27236149882 0.31252793457 0.62959845003 0.58611366582 0.57589404777 0.5728972641 
0.57353442571 0.56269260898 0.46624111032 0.46126241769 0.4588109291 0.45869847189 0.65316696116 0.63448230883 0.61139402508 
0.67609586609 0.74923376411 0.67355465148 0.68187394728 0.67254784757 0.58496788587 0.51161650179 0.55606154936 0.58444325269 
0.56879091057 0.57779491387 0.57189738735 0.63034997354 0.61358401731 0.73589721458 0.76042452933 0.65523277288 0.64599329165 
0.59611744554 0.38651207923 0.43851411472 0.43368337018 0.50277380643 0.50845712747 0.56114312459 0.61659119268 0.21854697426 
0.30421645088 0.29571685745 0.31201602233 0.34413904318 0.3277359105 0.32744467773 0.40749831798 0.43973815426 0.46617123747 
0.38103129717 0.404623196 0.32738699059 0.34964950237 0.28401357704 0.31788412825 0.27877822626 0.21390003881 0.29435543454 
0.29315433389 0.34825596409 0.34772747237 0.31845466397 0.34485357076 0.3438271109 0.35133584475 0.3679477244 0.30177117023 
0.32506352864 0.3014966081 0.33971256595 0.36462062418 0.37003424707 0.35577480609 0.44224721296 0.53311969915 0.49883156325 
0.41525050962 0.40118023947 0.56581709895 0.57762800018 0.59374004399 0.64603437898 0.31131468533 0.29798561819 0.29602941795 
0.31595443016 0.32105303513 0.38476470571 0.44428753276 0.44380949733 0.5311604808 0.58538314265 0.21433684779 0.25680586392 
0.26020323963 0.28183049654 0.27515706423 0.28591793904 0.32078150922 0.3350973199 0.35070817655 0.40341298262 0.40897292617 
0.41464506502 0.4222312133 0.48646022626 0.53367073273 0.34147842182 0.29850710801 0.31774250103 0.29670729775 0.30305299106 
0.29006717994 0.27533377388 0.26501740038 0.26448323315 0.21937790249 0.29660694314 0.32556910442 0.33251493793 0.3918167683 
0.41711726579 0.44994221882 0.46135223274 0.51463484961 0.58884791832 0.27798932103 0.20130000473 0.15379737775 0.15821585357 
0.15141376256 0.15625856788 0.18522169081 0.20821262711 0.22020452769 0.23595650848 0.25318913022 0.27121865983 0.28461082058 
0.29442516476 0.32620428053 0.34616659642 0.33260474808 0.2942868239 0.29411257001 0.31647588809 0.29948793086 0.32294897837 
0.30711871084 0.29317436225 0.28693062744 0.28837279805 0.29622143457 0.31108321913 0.28314153625 0.31338989406 0.30486338743 
0.32730667066 0.35434633306 0.42029652957 0.64634659694 0.64100928299 0.6352535095 0.70008121962 0.54551006575 0.58119846224 
0.5234894303 0.47769689967 0.43974009108 0.41947829162 0.4218623232 0.4602671947 0.51662901221 0.57080944214 0.5243249642 
0.52864730184 0.45977928452 0.47831525374 0.41538897357 0.23194160961 0.2678570177 0.24868812048 0.27711598142 0.21734813697 
0.27798278929 0.31476709279 0.32781129371 0.3183057184 0.36948632261 0.4336274772 0.4780929583 0.50264273452 0.59422292671 
0.5454206541 0.56889781337 0.49609849278 0.50258110209 0.52794732709 0.48956878819 0.56954527991 0.5732917943 0.59900903707 
0.64213315603 0.75734750711 0.86286237929 0.61761966295 0.50117101509 0.52321326093 0.46964178078 0.4955059114 0.42873115223 
0.45333722962 0.3724760665 0.34141337296 0.31367377827 0.28975965173 0.27028754078 0.25667748742 0.253607749 0.26013541188 
0.15149477869 0.17454755432 0.2064436674 0.15396679817 0.19382902292 0.15466482699 0.2360128035 0.25084955815 0.26046265347 
0.374545469 0.39720982229 0.52296192183 0.53563329566 0.64897496476 0.66843435303 0.79877834168 0.86048619793 0.84296357989 
0.82411154533 0.82645872584 0.84383310394 0.97344358229 0.69313518185 0.56996218775 0.55491402475 0.63167587228 0.553439983 
0.52201050385 0.50287888235 0.44332609896 0.62116734772 0.63737400522 0.58670150347 0.53470700534 0.55274227035 0.52704472157 
0.58152640015 0.65187696154 0.64400609419 0.60723455865 0.57203368476 0.60862740484 0.6616560898 0.4895736931 0.44976146459 
0.38981595747 0.49326420132 0.429349887 0.4461068066 0.47926107874 0.28805406562 0.32459753021 0.30290277867 0.26868411595 
0.29167820384 0.31411239217 0.33235716045 0.32020650747 0.30985968105 0.31819886364 0.33471621457 0.35939388318 0.37989576045 
0.37827621704 0.37669809796 0.38747376095 0.37502530254 0.3772593574 0.41915667675 0.34863312708 0.31412312793 0.29842271373 
0.22867573758 0.22513082432 0.18359792814 0.17157603086 0.2517636312 0.27861650837 0.35503504951 0.38498565785 0.43568528143 
0.57610346441 0.58241932733 0.43777504204 0.41138768802 0.42936031362 0.45574960742 0.48462592639 0.46176885341 0.53342628446 
0.38003326656 0.47969061802 0.47569808382 0.54630049447 0.58314409033 0.19624932821 0.25869066314 0.26911213075 0.18683344895 
0.29030501084 0.28745446331 0.2918002859 0.32505261799 0.28519876716 0.37485579698 0.37590370064 0.37954355327 0.38327461405 
0.81258339088 0.85789930502 0.84295001951 0.79657886743 0.48049469126 0.52998919088 0.49152044684 0.49057654692 0.45362621816 
0.39955887435 0.32753293833 0.25123840538 0.23408897673 0.20681937325 0.2396624212 0.25017709364 0.28092686226 0.29388988547 
0.34785820722 0.36239623624 0.46287913731 0.49338703036 0.48801038757 0.45814784495 0.55139916998 0.42910186643 0.5338869842 
0.50462336291 0.56360351832 0.12873727924 0.14356680068 0.16312904982 0.20171810523 0.19822212158 0.19510579881 0.25501037814 
0.22814440176 0.26912319058 0.22463305661 0.25655483493 0.29435495531 0.31376068096 0.32149605292 0.33317510392 0.38179750124 
0.42467077862 0.57132024386 0.52219430076 0.24817634132 0.24547703687 0.2862776669 0.2894887325 0.28025083005 0.26139415009 
0.33336014876 0.33198071388 0.34057484426 0.37641034202 0.36420217992 0.39257637349 0.40752086827 0.1321446672 0.10325811793 
0.16259715736 0.19096559709 0.19316783524 0.26084291857 0.27212594193 0.33660939842 0.39232969392 0.52048692492 0.48408824952 
0.52545853288 0.52839528238 0.51368824532 0.46586465632 0.48099096853 0.49003988519 0.49638682562 0.51197100361 0.50452414957 
0.53696080399 0.48798684051 0.57235579073 0.58494071828 0.55824181011 0.57768078871 0.59496464331 0.55214886346 0.53339874316 
0.52490724668 0.59840862857 0.58001236509 0.6130637685 0.62138563454 0.52415449123 0.49578877353 0.49431962091 0.47840334246 
0.44138058959 0.43792813012 0.43630373251 0.43106560647 0.38678910575 0.37151969982 0.35329191655 0.4238549212 0.42561387653 
0.44158347101 0.47860248913 0.49740660002 0.4529013619 0.40982809452 0.75132393649 0.71341093764 0.76028660863 0.74092240737 
0.73552046693 0.70851681906 0.735943916 0.79908750725 0.8055720626 0.79664207026 0.77876502518 0.6981135097 0.69038957879 
0.68348969643 0.66485473804 0.57653478632 0.57250042932 0.54505680199 0.50684024847 0.46137027295 0.51817987874 0.53126783109 
0.48818096369 0.44832798953 0.52448937329 0.4985619813 0.59164979512 0.57761744875 0.27737717959 0.2593371762 0.2439385332 
0.30593902099 0.31098683661 0.31920271694 0.3313036743 0.34821379087 0.39324804757 0.42714922687 0.45976066635 0.48929232427 
0.53728980851 0.57044424481 0.57646436119 0.61740158251 0.64852354438 0.70166125688 0.25825912396 0.26566158525 0.24129838744 
0.252701841 0.27124959301 0.24220999284 0.25858404017 0.24930369265 0.25366697175 0.30831074056 0.30715146732 0.33439208386 
0.34632840254 0.36431260716 0.45050954959 0.47940940188 0.51133628522 0.54501501625 0.5243421679 0.47613748614 0.43487328465 
0.39576291147 0.38327408139 0.37841142834 0.37800372197 0.37309533513 0.40606388027 0.43674092436 0.405691224 0.47331150922 
0.4707422069 0.42380878215 0.41430885126 0.39776995202 0.42719604335 0.43467635147 0.43982940507 0.45720598937 0.48523618569 
0.48927920953 0.56981125202 0.5826022137 0.57739246151 0.17549866143 0.22853384729 0.23028380928 0.17070951775 0.24472850032 
0.27424503081 0.31043275185 0.35362460553 0.36855363735 0.36896832594 0.40157788726 0.39530685392 0.081638292848 0.12915377307 
0.15350414273 0.15127400672 0.18474169731 0.17777320594 0.22376960274 0.17214111108 0.19730091677 0.24751418489 0.25883714288 
0.29413186624 0.37358813426 0.40085326819 0.47312726119 0.45346497154 0.53179435468 0.45380078363 0.61451477649 0.58255753387 
0.59923404269 0.6178812268 0.6312521433 0.60503454727 0.70246120873 0.15269474941 0.1831469227 0.19532494731 0.19486888238 
0.19032953583 0.17437074485 0.15806307278 0.14989163444 0.19428507761 0.18044371722 0.18097011265 0.23558113488 0.25835983438 
0.2881734791 0.32399107001 0.34032417327 0.38813267665 0.71256828482 0.61348210298 0.59523689548 0.67119857286 0.75571894094 
0.7699974204 0.79073275668 0.73559080929 0.20452319856 0.19010941881 0.17738866147 0.16969623165 0.17105576751 0.22280416356 
0.22939386536 0.29856360082 0.31954107727 0.34531024365 0.43601479937 0.23373270205 0.2172808668 0.22527241017 0.2567109295 
0.24633245108 0.27677434079 0.2884071064 0.37305058304 0.25455981503 0.26146509305 0.24961455048 0.22394151789 0.25038130508 
0.24720290846 0.27331508234 0.28848135615 0.3273363609 0.37717859065 0.42936353989 0.15403549692 0.23597708477 0.21092008131 
0.17904594023 0.26501206598 0.27763121847 0.25462981024 0.30278741229 0.3209164225 0.36190988417 0.63655027495 0.59718159345 
0.65583711261 0.64174009228 0.60781330678 0.64471925115 0.58902205514 0.64238004659 0.62445980798 0.59601425334 0.67391521749 
0.71952690114 0.79339506605 0.8446980159 0.83664999771 0.61250671281 0.60942813133 0.59383803305 0.52101925154 0.51616518738 
0.46828640731 0.44558795778 0.6522808831 0.67295336898 0.67481942171 0.67711462204 0.67548867873 0.21553103945 0.2453675879 
0.2586983018 0.25167719886 0.1998165352 0.24151878527 0.26223032608 0.26351804576 0.24677971091 0.29383694033 0.28910563974 
0.28703264715 0.37725015039 0.38700756456 0.39647410589 0.50625172351 0.57628500356 0.6396257773 0.8349783752 0.7889008688 
0.75410713383 0.64231262176 0.58136344115 0.58605826631 0.5677921672 0.55524571346 0.4047744012 0.39158298296 0.40470668116 
0.39970728934 0.3797469454 0.34929225106 0.32627132379 0.29649687148 0.3589872707 0.38113915596 0.40688201502 0.39094663329 
0.3929494133 0.39594794096 0.37000693936 0.3739904664 0.34655581677 0.43912607065 0.4072895142 0.45130230701 0.54915684364 
0.36500526868 0.39016717162 0.39224673763 0.50411809713 0.57356560568 0.54861190492 0.43226132219 0.38636009245 0.3798097624 
0.42707620239 0.31715748708 0.31740607759 0.3051582832 0.29256908193 0.2778204926 0.33699635687 0.30395450019 0.26240479894 
0.43338293284 0.43381702557 0.41044810479 0.41137927725 0.38821989742 0.37485332111 0.39354763429 0.40093775572 0.41314075074 
0.40918698316 0.44883365105 0.43489921959 0.50455469346 0.46878434263 0.29783547739 0.31827723806 0.33381928069 0.34425623375 
0.30548802666 0.28889056026 0.363458667 0.40178884832 0.38425723056 0.45694688552 0.42779752701 0.47750280795 0.56542732147 
0.64196423907 0.63464067796 0.62096765881 0.63706686696 0.67133142886 0.80470112638 0.78603312566 0.80344389661 0.86518781206 
0.56923953937 0.55960916757 0.57979705357 0.55702102577 0.52897976622 0.53371425671 0.54066913996 0.55338435098 0.54903629704 
0.5339905519 0.52934663823 0.53364856057 0.52105998777 0.7290181637 0.70858597108 0.68910669836 0.71695626813 0.2335615526 
0.28032524209 0.31960730636 0.28900759488 0.31957912016 0.34610914083 0.3512787702 0.36170741863 0.33437512242 0.39791502986 
0.40466616592 0.46470099755 0.4467737206 0.51524278577 0.54494532875 0.5249197592 0.61425196787 0.68977215892 0.66802645928 
0.15948339405 0.15819593453 0.17344637197 0.18214760799 0.18061054976 0.17611245499 0.20650420505 0.2073984683 0.23841254863 
0.24857585093 0.25885736677 0.2721214808 0.28777760316 0.30492395252 0.31569506461 0.37689611958 0.34345865306 0.39131886687 
0.3960296566 0.41865946887 0.41617185045 0.41420756952 0.42602266368 0.52914463286 0.50010950296 0.51864064077 0.50060701563 
0.44495090831 0.55148666431 0.50071375258 0.50334713677 0.50203085143 0.43842329465 0.43522847926 0.36958363599 0.34041730027 
0.31196928741 0.28745666591 0.25565565447 0.25017991316 0.18625335162 0.21995230708 0.2502575018 0.30074528755 0.30539263351 
0.31033414452 0.44221559994 0.50508966281 0.54340373625 0.57807549554 0.18159799672 0.19014840416 0.1889009817 0.17893849404 